LAMMPS (12 Dec 2018)
units            real

dimension     3

boundary      p p p







variable       T equal 94.4

variable       P equal 73







lattice          fcc  7

Lattice spacing in x,y,z = 7 7 7
region          box  block -5 5 -5 5 -5 5

create_box    1 box

Created orthogonal box = (-35 -35 -35) to (35 35 35)
  1 by 1 by 1 MPI processor grid
create_atoms         1 box

Created 4000 atoms
  Time spent = 0.000718832 secs






mass           1  39.948







pair_style     lj/cut  15

pair_coeff     1  1    0.24   3.4







#Equiberation

velocity        all create $T 14235245 mom yes rot yes dist gaussian

velocity        all create 94.4 14235245 mom yes rot yes dist gaussian

timestep 1
fix NPT all npt temp $T $T 100.0 iso $P $P 1000
fix NPT all npt temp 94.4 $T 100.0 iso $P $P 1000
fix NPT all npt temp 94.4 94.4 100.0 iso $P $P 1000
fix NPT all npt temp 94.4 94.4 100.0 iso 73 $P 1000
fix NPT all npt temp 94.4 94.4 100.0 iso 73 73 1000
thermo_style custom step temp  press density
thermo 100
dump myDump all atom 100 dump.atom 
run 10000
Neighbor list info ...
  update every 1 steps, delay 10 steps, check yes
  max neighbors/atom: 2000, page size: 100000
  master list distance cutoff = 17
  ghost atom cutoff = 17
  binsize = 8.5, bins = 9 9 9
  1 neighbor lists, perpetual/occasional/extra = 1 0 0
  (1) pair lj/cut, perpetual
      attributes: half, newton on
      pair build: half/bin/atomonly/newton
      stencil: half/bin/3d/newton
      bin: standard
Per MPI rank memory allocation (min/avg/max) = 6.124 | 6.124 | 6.124 Mbytes
Step Temp Press Density 
       0         94.4     -794.111   0.77358844 
     100    99.757192   -924.13082    0.8196701 
     200    105.27633    -1026.198   0.87875385 
     300     92.40596   -701.61351    0.9303566 
     400    90.788737   -271.06566    0.9662286 
     500    104.27066   -148.33602   0.98894882 
     600    103.27663   -109.41018    1.0068575 
     700    102.67509   -135.85037    1.0242171 
     800    101.72465   -161.28959    1.0442361 
     900    98.392625   -134.47855    1.0653464 
    1000    97.626204   -134.61793    1.0850784 
    1100    96.905324   -128.23478    1.1047202 
    1200    97.700756   -135.09666    1.1243221 
    1300    95.956368   -98.567161     1.144008 
    1400    96.214127   -89.031742    1.1617895 
    1500    96.077395   -80.581133    1.1785845 
    1600    96.618644   -85.769688    1.1956043 
    1700    96.372594   -68.477023    1.2129291 
    1800    95.201576   -32.715825    1.2285724 
    1900    96.075448   -40.080347     1.242245 
    2000    95.431763   -25.340795    1.2558442 
    2100    94.688427    3.4587276    1.2684976 
    2200    94.706672    18.532921    1.2788362 
    2300    95.590774    8.9433107    1.2880033 
    2400    94.861375    23.601952    1.2972605 
    2500    94.411561    31.242709    1.3056848 
    2600    94.792114    25.049676    1.3139097 
    2700    93.948378    49.172569    1.3218297 
    2800    94.684567    49.276343    1.3281393 
    2900    94.428235    56.089132    1.3331819 
    3000    94.605597    49.369338    1.3375607 
    3100    94.210085    54.679475     1.342332 
    3200    94.479368    56.039438    1.3470694 
    3300    93.911893    75.271771    1.3511308 
    3400    94.333973    66.397053     1.353937 
    3500    93.181776    72.791303    1.3560011 
    3600    95.025308    43.645271    1.3578766 
    3700      93.1711    79.058609    1.3618674 
    3800    93.235814    88.892957    1.3639916 
    3900    95.502502    76.644779    1.3634752 
    4000    96.077292    60.573866      1.36301 
    4100    92.392451     81.94996    1.3638313 
    4200    93.674049    65.194003    1.3639124 
    4300    95.419969    55.783355    1.3651776 
    4400    94.204582    88.257896    1.3679069 
    4500    93.311437    73.556632    1.3686935 
    4600    91.055412    75.507183    1.3690817 
    4700    94.899024    68.009505    1.3695652 
    4800    94.129807    113.33867      1.36971 
    4900    95.244687    61.326531    1.3654585 
    5000      94.4727    37.198792    1.3626703 
    5100    92.728774    61.335392    1.3649547 
    5200    93.702937     93.44715    1.3688615 
    5300    95.740817    121.64587    1.3698688 
    5400    95.857349    65.969869    1.3646753 
    5500    92.616355    17.853304     1.359858 
    5600    93.247797    34.567656    1.3626514 
    5700    97.648933    123.84501    1.3706028 
    5800    96.353368    139.42116     1.372451 
    5900    94.143816    43.665301    1.3653612 
    6000    93.595795   -14.028291    1.3617941 
    6100    94.130668    82.733131     1.369788 
    6200    96.170805    168.72741     1.376983 
    6300    95.380044    96.879008    1.3718635 
    6400    92.838055   -15.545023    1.3633736 
    6500    93.458871    25.841868    1.3663115 
    6600    94.056657    169.45668    1.3754815 
    6700    94.744615    143.82365    1.3724929 
    6800     94.05389    10.897748    1.3598215 
    6900    94.760551   -33.219049    1.3562813 
    7000    93.274787    113.13471    1.3660219 
    7100    97.759301    151.58473    1.3705114 
    7200    96.335905    59.942925    1.3647942 
    7300    93.978023    9.4728759    1.3612298 
    7400    94.557162    45.390556    1.3662847 
    7500    93.305721    146.23516    1.3739344 
    7600    94.560683    121.86705    1.3719702 
    7700    95.843869    42.410851    1.3634828 
    7800    94.627085    15.469153    1.3595326 
    7900    93.524268    32.674032    1.3640891 
    8000    93.774956    99.981933    1.3734291 
    8100    95.006926    127.60252    1.3784658 
    8200    93.082243    80.619944    1.3760284 
    8300    91.927261    31.260063    1.3727753 
    8400    92.841387    92.071851    1.3743295 
    8500    95.379269    78.313214    1.3744815 
    8600    95.110571     55.06533     1.373888 
    8700    93.053316    69.159231    1.3755752 
    8800    94.055128    85.242134    1.3779336 
    8900    95.741716    102.77044    1.3784124 
    9000    96.634546    71.587597    1.3746419 
    9100    93.380134    38.384169    1.3703823 
    9200    91.510658    61.776661    1.3701229 
    9300    96.317212    51.520117    1.3728991 
    9400    94.961198    117.49676    1.3785629 
    9500    93.680019    110.94011    1.3791585 
    9600    93.854174    43.298994    1.3739116 
    9700    95.383576    32.310144    1.3714672 
    9800    95.763835    128.99113    1.3738959 
    9900    94.304123     106.7027    1.3695094 
   10000      94.2214   -23.718374    1.3592602 
Loop time of 130.164 on 1 procs for 10000 steps with 4000 atoms

Performance: 6.638 ns/day, 3.616 hours/ns, 76.826 timesteps/s
97.9% CPU use with 1 MPI tasks x no OpenMP threads

MPI task timing breakdown:
Section |  min time  |  avg time  |  max time  |%varavg| %total
---------------------------------------------------------------
Pair    | 124.85     | 124.85     | 124.85     |   0.0 | 95.92
Neigh   | 1.9992     | 1.9992     | 1.9992     |   0.0 |  1.54
Comm    | 0.77162    | 0.77162    | 0.77162    |   0.0 |  0.59
Output  | 0.34113    | 0.34113    | 0.34113    |   0.0 |  0.26
Modify  | 1.8793     | 1.8793     | 1.8793     |   0.0 |  1.44
Other   |            | 0.319      |            |       |  0.25

Nlocal:    4000 ave 4000 max 4000 min
Histogram: 1 0 0 0 0 0 0 0 0 0
Nghost:    11968 ave 11968 max 11968 min
Histogram: 1 0 0 0 0 0 0 0 0 0
Neighs:    848098 ave 848098 max 848098 min
Histogram: 1 0 0 0 0 0 0 0 0 0

Total # of neighbors = 848098
Ave neighs/atom = 212.024
Neighbor list builds = 77
Dangerous builds = 0
Total wall time: 0:02:10
